,element,Number,MendeleevNumber,AtomicWeight,MeltingT,Column,Row,CovalentRadius,Electronegativity,NsValence,NpValence,NdValence,NfValence,NValence,NsUnfilled,NpUnfilled,NdUnfilled,NfUnfilled,NUnfilled,GSvolume_pa,GSbandgap,GSmagmom,SpaceGroupNumber
90,Pa,1.5,-1.1495513856555446,1.5315842817889127,0.6214587519569367,-0.8980591693868955,1.3836414249689155,1.0961492872557959,-0.37237069339111545,0.4477667355944951,-0.5770450350846598,-0.6530857806858109,-0.31461204386173947,-0.6872160094905185,-0.4444444444444444,-0.5169341375966833,2.066015694967283,3.227218371717737,3.4567310661725004,-0.0746206575105221,-0.32588186366206906,-0.2078325895799724,-0.7164211429093408
91,U,1.5357142857142858,-1.0837270146941587,1.627056321336635,0.13185331248128995,-0.8980591693868955,1.3836414249689155,1.0049406397208935,-0.5641580770668935,0.4477667355944951,-0.5770450350846598,-0.6530857806858109,-0.13509811295239402,-0.5604860609723051,-0.4444444444444444,-0.5169341375966833,2.066015694967283,2.9215150689280684,3.247428373651444,-0.38372599444511546,-0.32588186366206906,-0.2078325895799724,-1.9608737031184973
92,Np,1.5714285714285714,-1.0179026437327727,1.613009212248176,-0.41825257031629015,-0.8980591693868955,1.3836414249689155,0.8681276684185404,-0.5961226410128561,0.4477667355944951,-0.5770450350846598,-0.6530857806858109,0.04441581795695146,-0.43375611245409157,-0.4444444444444444,-0.5169341375966833,2.066015694967283,2.6158117661384,3.0381256811303876,-0.4779416609162075,-0.32588186366206906,-0.2078325895799724,-1.977248078910723
93,Pu,1.6071428571428572,-0.9520782727713867,1.7085761360988647,-0.42273408463643336,-0.8980591693868955,1.3836414249689155,0.7997211827673637,-0.7239808967967081,0.4477667355944951,-0.5770450350846598,-0.8885851142416609,0.4034436797756424,-0.3070261639358781,-0.4444444444444444,-0.5169341375966833,-0.6299958172994405,2.004405160559063,0.7357960633987657,-0.5003525473719407,-0.32588186366206906,0.9516406256108799,-2.812341244314236
94,Am,1.6428571428571428,-0.8862539018100007,1.6949237184059092,0.17778883426275796,-0.8980591693868955,1.3836414249689155,0.6401060495812849,-0.692016332850745,0.4477667355944951,-0.5770450350846598,-0.8885851142416609,0.5829576106849879,-0.1802962154176646,-0.4444444444444444,-0.5169341375966833,-0.6299958172994405,1.6987018577693949,0.5264933708777092,-0.5003525473719407,-0.32588186366206906,0.9516406256108799,0.1841695256630751
95,Cm,1.6785714285714286,-0.8204295308486147,1.7495333891777312,0.36713281428880895,-0.8980591693868955,1.3836414249689155,0.389282268860304,-0.692016332850745,0.4477667355944951,-0.5770450350846598,-0.6530857806858109,0.5829576106849879,-0.0535662668994511,-0.4444444444444444,-0.5169341375966833,2.066015694967283,1.6987018577693949,2.410217603567218,-0.5003525473719407,-0.32588186366206906,0.9516406256108799,0.1841695256630751
96,Bk,1.7142857142857142,-0.7546051598872288,1.7495333891777312,0.03662113317824656,-0.8980591693868955,1.3836414249689155,-0.13516745446538345,-0.692016332850745,0.4477667355944951,-0.5770450350846598,-0.8885851142416609,0.9419854725036788,0.0731636816187624,-0.4444444444444444,-0.5169341375966833,-0.6299958172994405,1.0872952521900578,0.10788798583559614,-0.5003525473719407,-0.32588186366206906,0.9516406256108799,0.1841695256630751